                               Psi4 1.4.1 release

  ==> Input File <==

--------------------------------------------------------------------------
# psi4 cal hessian file for CH3NH2 at optimized geom

memory 500 mb
molecule CH3NH2 {
  0  1
# add in xyz coords here
C     0.    0.    0.
H     0.9   0.   -0.7
H    -0.4   0.8  -0.7
H    -0.4  -0.8  -0.7
N     0.    0.    1.3
H     0.05    0.9   2.0
H     0.05   -0.9   2.0
symmetry c1
no_reorient
no_com
units angstrom
  }

set_num_threads(6)

### start of set options block
set {
  basis 6-31g**
# key: basis  from global_opt  reset to 6-31g**
  maxiter 100
# key: maxiter  from global_opt 50 reset to 100
  reference rhf
# key: reference  from global_opt RHF reset to rhf
  scf_type direct
# key: scf_type  from global_opt PK reset to direct
  d_convergence 10
# key: d_convergence  from global_opt 1e-08 reset to 10
  e_convergence 10
# key: e_convergence  from global_opt 1e-06 reset to 10
  ints_tolerance 10
# key: ints_tolerance  from global_opt 1e-12 reset to 10
  print_mos False
# key: print_mos  from global_opt 0 reset to False
  geom_maxiter 50
# key: geom_maxiter  from global_opt 50 reset to 50
  }

# calc CH3NH2 opt_wfn at equil_geom
E_opt,CH3NH2_opt_wfn = optimize('scf',return_wfn=True)
CH3NH2_opt_wfn.to_file('CH3NH2_opt_wfn.npy')
# calc CH3NH2 frequencies at optimized geom for comparision with buildhess freq
E, CH3NH2_hess_wfn = frequency('scf',return_wfn=True)
--------------------------------------------------------------------------

    Molecular point group: c1
  Charge       = 0
  Multiplicity = 1
  Basis Set: 6-31G**
    Blend: 6-31G**
  Basis Set: (6-31G** AUX)
    Blend: CC-PVDZ-JKFIT
  @RHF Final Energy:   -95.11807890352812
    Total Energy =                        -95.1180789035281151
    Molecular point group: c1
  Basis Set: 6-31G**
    Blend: 6-31G**
  Basis Set: 6-31G**
    Blend: 6-31G**
  Basis Set: (6-31G** AUX)
    Blend: CC-PVDZ-JKFIT
  @RHF Final Energy:   -95.18938737698286
    Total Energy =                        -95.1893873769828645
  Basis Set: 6-31G**
    Blend: 6-31G**
  Basis Set: 6-31G**
    Blend: 6-31G**
  Basis Set: (6-31G** AUX)
    Blend: CC-PVDZ-JKFIT
  @RHF Final Energy:   -95.21119279123702
    Total Energy =                        -95.2111927912370248
  Basis Set: 6-31G**
  @RHF Final Energy:   -95.21404014943963
    Total Energy =                        -95.2140401494396258
  @RHF Final Energy:   -95.21609055335958
    Total Energy =                        -95.2160905533595781
  @RHF Final Energy:   -95.12457158684811
    Total Energy =                        -95.1245715868481057
  @RHF Final Energy:   -95.19223205806547
    Total Energy =                        -95.1922320580654713
  @RHF Final Energy:   -95.21662545221633
    Total Energy =                        -95.2166254522163342
  @RHF Final Energy:   -95.21920053328229
    Total Energy =                        -95.2192005332822902
  @RHF Final Energy:   -95.22053889025192
    Total Energy =                        -95.2205388902519161
  @RHF Final Energy:   -95.22113740450082
    Total Energy =                        -95.2211374045008228
  @RHF Final Energy:   -95.22164731485165
    Total Energy =                        -95.2216473148516513
  @RHF Final Energy:   -95.22185794008348
    Total Energy =                        -95.2218579400834813
    Blend: 6-31G**
  Basis Set: (6-31G** AUX)
    Blend: CC-PVDZ-JKFIT
  @RHF Final Energy:   -95.22186424743441
    Total Energy =                        -95.2218642474344108
  Basis Set: 6-31G**
    Blend: 6-31G**
  **** Optimization is complete! (in 14 steps) ****
    Final optimized geometry and variables:
  Basis Set: 6-31G**
    Blend: 6-31G**
  Basis Set: (6-31G** AUX)
    Blend: CC-PVDZ-JKFIT
  @RHF Final Energy:   -95.22186424743433
    Total Energy =                        -95.2218642474343255
  Basis Set: 6-31G**
    Blend: 6-31G**

  -Total Gradient:
     Atom            X                  Y                   Z
    ------   -----------------  -----------------  -----------------
       1        0.000141610026    -0.000000000000    -0.000163964394
       2       -0.000049678705     0.000000000000    -0.000015695692
       3       -0.000020767483    -0.000042173834     0.000015897510
       4       -0.000020767483     0.000042173834     0.000015897510
       5        0.000022148683     0.000000000000     0.000166752687
       6       -0.000036272519    -0.000081847435    -0.000009443810
       7       -0.000036272519     0.000081847435    -0.000009443810

    Molecular point group: c1
  Charge       = 0
  Multiplicity = 1
  Basis Set: 6-31G**
    Blend: 6-31G**
  Basis Set: (6-31G** AUX)
    Blend: CC-PVDZ-JKFIT

    Orbital Energies [Eh]
    ---------------------

    Doubly Occupied:

       1A    -15.534359     2A    -11.238050     3A     -1.170395
       4A     -0.896104     5A     -0.663042     6A     -0.601394
       7A     -0.556452     8A     -0.515563     9A     -0.382580

  @RHF Final Energy:   -95.22186424743441

   => Energetics <=

    Nuclear Repulsion Energy =             42.3509851012754552
    One-Electron Energy =                -212.0298191947262580
    Two-Electron Energy =                  74.4569698460163920
    Total Energy =                        -95.2218642474344108

  Dipole Moment: [D]
     X:     1.4633      Y:     0.0000      Z:    -0.1751     Total:     1.4737

    Molecular point group: c1

    Geometry (in Angstrom), charge = 0, multiplicity = 1:

       Center              X                  Y                   Z               Mass
    ------------   -----------------  -----------------  -----------------  -----------------
         C           -0.017838988141    -0.000000000000    -0.110866997526    12.000000000000
         H            1.026527953702    -0.000000000000    -0.427781650148     1.007825032230
         H           -0.495825295544     0.873575146238    -0.540397808216     1.007825032230
         H           -0.495825295544    -0.873575146239    -0.540397808215     1.007825032230
         N           -0.219120768540     0.000000000000     1.327052257283    14.003074004430
         H            0.201041197033     0.804848812301     1.746196003411     1.007825032230
         H            0.201041197034    -0.804848812300     1.746196003411     1.007825032230

  Basis Set: 6-31G**
    Blend: 6-31G**

  Vibration                       7                   8                   9
  Freq [cm^-1]                 334.8270            918.7858           1044.3771
  Irrep                           A                   A                   A
  Reduced mass [u]              1.0292              1.1697              1.0460
  Force const [mDyne/A]         0.0680              0.5818              0.6722

  IR activ [km/mol]            45.5250             187.1120             0.0182

  Vibration                       10                  11                  12
  Freq [cm^-1]                1146.9453           1276.6153           1465.1027
  Irrep                           A                   A                   A
  Reduced mass [u]              3.9467              1.3643              1.3505
  Force const [mDyne/A]         3.0590              1.3101              1.7080

  IR activ [km/mol]            18.9150             16.1767              0.0740

  Vibration                       13                  14                  15
  Freq [cm^-1]                1593.7087           1630.8880           1648.0512
  Irrep                           A                   A                   A
  Reduced mass [u]              1.1742              1.0584              1.0366
  Force const [mDyne/A]         1.7572              1.6586              1.6589

  IR activ [km/mol]             3.3862              6.7104              1.3574

  Vibration                       16                  17                  18
  Freq [cm^-1]                1808.4364           3134.5946           3222.1511
  Irrep                           A                   A                   A
  Reduced mass [u]              1.0925              1.0557              1.0800
  Force const [mDyne/A]         2.1051              6.1116              6.6067

  IR activ [km/mol]            28.6716             98.5976             59.6058

  Vibration                       19                  20                  21
  Freq [cm^-1]                3258.5553           3746.2876           3832.3707
  Irrep                           A                   A                   A
  Reduced mass [u]              1.1046              1.0503              1.0942
  Force const [mDyne/A]         6.9106              8.6846              9.4684

  IR activ [km/mol]            51.4392              0.6406              0.4311

  ==> Thermochemistry Components <==

  Entropy, S
    Electronic S            0.000 [cal/(mol K)]        0.000 [J/(mol K)]       0.00000000 [mEh/K] (multiplicity = 1)
    Translational S        36.231 [cal/(mol K)]      151.590 [J/(mol K)]       0.05773774 [mEh/K] (mol. weight = 31.0422 [u], P = 101325.00 [Pa])
    Rotational S           20.192 [cal/(mol K)]       84.485 [J/(mol K)]       0.03217847 [mEh/K] (symmetry no. = 1)
    Vibrational S           1.564 [cal/(mol K)]        6.542 [J/(mol K)]       0.00249186 [mEh/K]
  Total S                  57.987 [cal/(mol K)]      242.617 [J/(mol K)]       0.09240807 [mEh/K]
  Correction S              0.000 [cal/(mol K)]        0.000 [J/(mol K)]       0.00000000 [mEh/K]

  Constant volume heat capacity, Cv
    Electronic Cv           0.000 [cal/(mol K)]        0.000 [J/(mol K)]       0.00000000 [mEh/K]
    Translational Cv        2.981 [cal/(mol K)]       12.472 [J/(mol K)]       0.00475022 [mEh/K]
    Rotational Cv           2.981 [cal/(mol K)]       12.472 [J/(mol K)]       0.00475022 [mEh/K]
    Vibrational Cv          3.068 [cal/(mol K)]       12.839 [J/(mol K)]       0.00488996 [mEh/K]
  Total Cv                  9.030 [cal/(mol K)]       37.782 [J/(mol K)]       0.01439039 [mEh/K]
  Correction Cv             0.000 [cal/(mol K)]        0.000 [J/(mol K)]       0.00000000 [mEh/K]

  Constant pressure heat capacity, Cp
    Electronic Cp           0.000 [cal/(mol K)]        0.000 [J/(mol K)]       0.00000000 [mEh/K]
    Translational Cp        4.968 [cal/(mol K)]       20.786 [J/(mol K)]       0.00791703 [mEh/K]
    Rotational Cp           2.981 [cal/(mol K)]       12.472 [J/(mol K)]       0.00475022 [mEh/K]
    Vibrational Cp          3.068 [cal/(mol K)]       12.839 [J/(mol K)]       0.00488996 [mEh/K]
  Total Cp                 11.017 [cal/(mol K)]       46.096 [J/(mol K)]       0.01755720 [mEh/K]
  Correction Cp             0.000 [cal/(mol K)]        0.000 [J/(mol K)]       0.00000000 [mEh/K]

  ==> Thermochemistry Energy Analysis <==

  Raw electronic energy, E0
  Total E0, Electronic energy at well bottom at 0 [K]                  -95.22186425 [Eh]

  Zero-point energy, ZPE_vib = Sum_i nu_i / 2
    Electronic ZPE          0.000 [kcal/mol]        0.000 [kJ/mol]       0.00000000 [Eh]
    Translational ZPE       0.000 [kcal/mol]        0.000 [kJ/mol]       0.00000000 [Eh]
    Rotational ZPE          0.000 [kcal/mol]        0.000 [kJ/mol]       0.00000000 [Eh]
    Vibrational ZPE        42.975 [kcal/mol]      179.809 [kJ/mol]       0.06848558 [Eh]       15030.848 [cm^-1]
  Correction ZPE           42.975 [kcal/mol]      179.809 [kJ/mol]       0.06848558 [Eh]       15030.848 [cm^-1]
  Total ZPE, Electronic energy at 0 [K]                                -95.15337866 [Eh]

  Thermal Energy, E (includes ZPE)
    Electronic E            0.000 [kcal/mol]        0.000 [kJ/mol]       0.00000000 [Eh]
    Translational E         0.889 [kcal/mol]        3.718 [kJ/mol]       0.00141628 [Eh]
    Rotational E            0.889 [kcal/mol]        3.718 [kJ/mol]       0.00141628 [Eh]
    Vibrational E          43.294 [kcal/mol]      181.144 [kJ/mol]       0.06899411 [Eh]
  Correction E             45.072 [kcal/mol]      188.581 [kJ/mol]       0.07182667 [Eh]
  Total E, Electronic energy at  298.15 [K]                            -95.15003758 [Eh]

  Enthalpy, H_trans = E_trans + k_B * T
    Electronic H            0.000 [kcal/mol]        0.000 [kJ/mol]       0.00000000 [Eh]
    Translational H         1.481 [kcal/mol]        6.197 [kJ/mol]       0.00236046 [Eh]
    Rotational H            0.889 [kcal/mol]        3.718 [kJ/mol]       0.00141628 [Eh]
    Vibrational H          43.294 [kcal/mol]      181.144 [kJ/mol]       0.06899411 [Eh]
  Correction H             45.664 [kcal/mol]      191.060 [kJ/mol]       0.07277085 [Eh]
  Total H, Enthalpy at  298.15 [K]                                     -95.14909339 [Eh]

  Gibbs free energy, G = H - T * S
    Electronic G            0.000 [kcal/mol]        0.000 [kJ/mol]       0.00000000 [Eh]
    Translational G        -9.321 [kcal/mol]      -38.999 [kJ/mol]      -0.01485405 [Eh]
    Rotational G           -5.132 [kcal/mol]      -21.471 [kJ/mol]      -0.00817774 [Eh]
    Vibrational G          42.828 [kcal/mol]      179.193 [kJ/mol]       0.06825117 [Eh]
  Correction G             28.376 [kcal/mol]      118.723 [kJ/mol]       0.04521939 [Eh]
  Total G, Free enthalpy at  298.15 [K]                                -95.17664486 [Eh]

*** Psi4 exiting successfully. Buy a developer a beer!
